32
	Energy:      53.4564775
O          0.97998        0.18369        0.19123
C          2.19426        0.08551        0.11968
C          2.78476       -1.19289        0.07171
O          1.99826       -2.28838        0.10021
C          4.19994       -1.29536       -0.01234
C          4.98729       -2.58150       -0.06910
C          6.38933       -2.49370       -0.22351
C          7.18794       -3.63648       -0.28419
C          6.61362       -4.90672       -0.18960
O          7.38727       -6.01103       -0.24754
C          5.22463       -5.02598       -0.03258
O          4.63533       -6.23708        0.06589
C          4.42385       -3.87735        0.02597
O          4.91336       -0.16977       -0.04569
C          4.39729        1.05069       -0.00127
C          5.25737        2.15222       -0.03950
C          4.74363        3.45320        0.00688
O          5.56567        4.52155       -0.02839
C          3.36360        3.65028        0.09097
C          2.48459        2.55613        0.13025
O          1.15436        2.77553        0.21173
C          3.00303        1.23737        0.08450
H          1.03277       -2.25513        0.15391
H          6.88528       -1.53471       -0.30215
H          8.25891       -3.53061       -0.40513
H          8.34798       -5.96371       -0.35550
H          5.13193       -7.06682        0.03495
H          3.37313       -4.05007        0.15200
H          6.32716        1.99450       -0.10472
H          6.52752        4.42981       -0.08539
H          2.97236        4.65985        0.12629
H          0.77610        3.66591        0.24418
